+ 2.00412 /NodeList/0/DeviceList/0/$ns3::PointToPointNetDevice/TxQueue/Enqueue ns3::PppHeader (Point-to-Point Protocol: IP (0x0021)) ns3::Ipv4Header (tos 0x0 DSCP Default ECN Not-ECT ttl 63 id 0 protocol 17 offset (bytes) 0 flags [none] length: 1052 10.1.3.1 > 10.1.2.3) ns3::UdpHeader (length: 1032 49153 > 9) Payload (size=1024)
- 2.00412 /NodeList/0/DeviceList/0/$ns3::PointToPointNetDevice/TxQueue/Dequeue ns3::PppHeader (Point-to-Point Protocol: IP (0x0021)) ns3::Ipv4Header (tos 0x0 DSCP Default ECN Not-ECT ttl 63 id 0 protocol 17 offset (bytes) 0 flags [none] length: 1052 10.1.3.1 > 10.1.2.3) ns3::UdpHeader (length: 1032 49153 > 9) Payload (size=1024)
r 2.00781 /NodeList/1/DeviceList/0/$ns3::PointToPointNetDevice/MacRx ns3::PppHeader (Point-to-Point Protocol: IP (0x0021)) ns3::Ipv4Header (tos 0x0 DSCP Default ECN Not-ECT ttl 63 id 0 protocol 17 offset (bytes) 0 flags [none] length: 1052 10.1.3.1 > 10.1.2.3) ns3::UdpHeader (length: 1032 49153 > 9) Payload (size=1024)
+ 2.00905 /NodeList/1/DeviceList/0/$ns3::PointToPointNetDevice/TxQueue/Enqueue ns3::PppHeader (Point-to-Point Protocol: IP (0x0021)) ns3::Ipv4Header (tos 0x0 DSCP Default ECN Not-ECT ttl 63 id 0 protocol 17 offset (bytes) 0 flags [none] length: 1052 10.1.2.3 > 10.1.3.1) ns3::UdpHeader (length: 1032 9 > 49153) Payload (size=1024)
- 2.00905 /NodeList/1/DeviceList/0/$ns3::PointToPointNetDevice/TxQueue/Dequeue ns3::PppHeader (Point-to-Point Protocol: IP (0x0021)) ns3::Ipv4Header (tos 0x0 DSCP Default ECN Not-ECT ttl 63 id 0 protocol 17 offset (bytes) 0 flags [none] length: 1052 10.1.2.3 > 10.1.3.1) ns3::UdpHeader (length: 1032 9 > 49153) Payload (size=1024)
r 2.01273 /NodeList/0/DeviceList/0/$ns3::PointToPointNetDevice/MacRx ns3::PppHeader (Point-to-Point Protocol: IP (0x0021)) ns3::Ipv4Header (tos 0x0 DSCP Default ECN Not-ECT ttl 63 id 0 protocol 17 offset (bytes) 0 flags [none] length: 1052 10.1.2.3 > 10.1.3.1) ns3::UdpHeader (length: 1032 9 > 49153) Payload (size=1024)
+ 3.00212 /NodeList/3/DeviceList/0/$ns3::PointToPointNetDevice/TxQueue/Enqueue ns3::PppHeader (Point-to-Point Protocol: IP (0x0021)) ns3::Ipv4Header (tos 0x0 DSCP Default ECN Not-ECT ttl 63 id 0 protocol 17 offset (bytes) 0 flags [none] length: 1052 10.1.5.2 > 10.1.2.3) ns3::UdpHeader (length: 1032 49153 > 9) Payload (size=1024)
- 3.00212 /NodeList/3/DeviceList/0/$ns3::PointToPointNetDevice/TxQueue/Dequeue ns3::PppHeader (Point-to-Point Protocol: IP (0x0021)) ns3::Ipv4Header (tos 0x0 DSCP Default ECN Not-ECT ttl 63 id 0 protocol 17 offset (bytes) 0 flags [none] length: 1052 10.1.5.2 > 10.1.2.3) ns3::UdpHeader (length: 1032 49153 > 9) Payload (size=1024)
r 3.0058 /NodeList/2/DeviceList/0/$ns3::PointToPointNetDevice/MacRx ns3::PppHeader (Point-to-Point Protocol: IP (0x0021)) ns3::Ipv4Header (tos 0x0 DSCP Default ECN Not-ECT ttl 63 id 0 protocol 17 offset (bytes) 0 flags [none] length: 1052 10.1.5.2 > 10.1.2.3) ns3::UdpHeader (length: 1032 49153 > 9) Payload (size=1024)
+ 3.01504 /NodeList/2/DeviceList/0/$ns3::PointToPointNetDevice/TxQueue/Enqueue ns3::PppHeader (Point-to-Point Protocol: IP (0x0021)) ns3::Ipv4Header (tos 0x0 DSCP Default ECN Not-ECT ttl 63 id 0 protocol 17 offset (bytes) 0 flags [none] length: 1052 10.1.2.3 > 10.1.5.2) ns3::UdpHeader (length: 1032 9 > 49153) Payload (size=1024)
- 3.01504 /NodeList/2/DeviceList/0/$ns3::PointToPointNetDevice/TxQueue/Dequeue ns3::PppHeader (Point-to-Point Protocol: IP (0x0021)) ns3::Ipv4Header (tos 0x0 DSCP Default ECN Not-ECT ttl 63 id 0 protocol 17 offset (bytes) 0 flags [none] length: 1052 10.1.2.3 > 10.1.5.2) ns3::UdpHeader (length: 1032 9 > 49153) Payload (size=1024)
r 3.01873 /NodeList/3/DeviceList/0/$ns3::PointToPointNetDevice/MacRx ns3::PppHeader (Point-to-Point Protocol: IP (0x0021)) ns3::Ipv4Header (tos 0x0 DSCP Default ECN Not-ECT ttl 63 id 0 protocol 17 offset (bytes) 0 flags [none] length: 1052 10.1.2.3 > 10.1.5.2) ns3::UdpHeader (length: 1032 9 > 49153) Payload (size=1024)
+ 4.00412 /NodeList/3/DeviceList/0/$ns3::PointToPointNetDevice/TxQueue/Enqueue ns3::PppHeader (Point-to-Point Protocol: IP (0x0021)) ns3::Ipv4Header (tos 0x0 DSCP Default ECN Not-ECT ttl 63 id 0 protocol 17 offset (bytes) 0 flags [none] length: 1052 10.1.5.3 > 10.1.2.3) ns3::UdpHeader (length: 1032 49153 > 9) Payload (size=1024)
- 4.00412 /NodeList/3/DeviceList/0/$ns3::PointToPointNetDevice/TxQueue/Dequeue ns3::PppHeader (Point-to-Point Protocol: IP (0x0021)) ns3::Ipv4Header (tos 0x0 DSCP Default ECN Not-ECT ttl 63 id 0 protocol 17 offset (bytes) 0 flags [none] length: 1052 10.1.5.3 > 10.1.2.3) ns3::UdpHeader (length: 1032 49153 > 9) Payload (size=1024)
r 4.0078 /NodeList/2/DeviceList/0/$ns3::PointToPointNetDevice/MacRx ns3::PppHeader (Point-to-Point Protocol: IP (0x0021)) ns3::Ipv4Header (tos 0x0 DSCP Default ECN Not-ECT ttl 63 id 0 protocol 17 offset (bytes) 0 flags [none] length: 1052 10.1.5.3 > 10.1.2.3) ns3::UdpHeader (length: 1032 49153 > 9) Payload (size=1024)
+ 4.00799 /NodeList/2/DeviceList/0/$ns3::PointToPointNetDevice/TxQueue/Enqueue ns3::PppHeader (Point-to-Point Protocol: IP (0x0021)) ns3::Ipv4Header (tos 0x0 DSCP Default ECN Not-ECT ttl 63 id 0 protocol 17 offset (bytes) 0 flags [none] length: 1052 10.1.2.3 > 10.1.5.3) ns3::UdpHeader (length: 1032 9 > 49153) Payload (size=1024)
- 4.00799 /NodeList/2/DeviceList/0/$ns3::PointToPointNetDevice/TxQueue/Dequeue ns3::PppHeader (Point-to-Point Protocol: IP (0x0021)) ns3::Ipv4Header (tos 0x0 DSCP Default ECN Not-ECT ttl 63 id 0 protocol 17 offset (bytes) 0 flags [none] length: 1052 10.1.2.3 > 10.1.5.3) ns3::UdpHeader (length: 1032 9 > 49153) Payload (size=1024)
r 4.01167 /NodeList/3/DeviceList/0/$ns3::PointToPointNetDevice/MacRx ns3::PppHeader (Point-to-Point Protocol: IP (0x0021)) ns3::Ipv4Header (tos 0x0 DSCP Default ECN Not-ECT ttl 63 id 0 protocol 17 offset (bytes) 0 flags [none] length: 1052 10.1.2.3 > 10.1.5.3) ns3::UdpHeader (length: 1032 9 > 49153) Payload (size=1024)
